48   
5    

1    
  0.0060304563875062  -0.0000000000006378   0.0079770668643547
  -0.0538359600   -0.0000001100   -0.3207207000
   0.0238999700    0.0000000500    0.0008693800
   0.0016368700   -0.0000000300    0.0008678300
  -0.0008733800    0.0000000100    0.0000670000
   0.0004602900    0.0000000900   -0.0029001000
  -0.0001203500    0.0000000300   -0.0008142400
   0.0008767500   -0.0000000200   -0.0008142500
   0.0008103000   -0.0000000900    0.0014270300
  -0.0060098400   -0.0032759900    0.0010528000
   0.0099789500   -0.0127163400    0.0159973000
  -0.0060097600    0.0032759000    0.0010525600
   0.0099788600    0.0127162600    0.0159974300
   0.0101126600    0.0128883200    0.0162659600
  -0.0059714700    0.0031931700    0.0010410400
   0.0101125900   -0.0128881300    0.0162660800
  -0.0059713900   -0.0031931200    0.0010408500
   0.0026036200   -0.0002718600    0.0037227500
  -0.0017024800   -0.0000065700    0.0002775800
   0.0026036100    0.0002718900    0.0037227400
  -0.0017024800    0.0000066000    0.0002775500
  -0.0002732000    0.0000117600   -0.0008718500
   0.0003718100    0.0000032400    0.0002090200
  -0.0002732000   -0.0000117500   -0.0008718400
   0.0003718300   -0.0000032300    0.0002089900
   0.0138383800   -0.0000000000    0.0036868300
   0.0132521400   -0.0000000200    0.0037548800
   0.0001005800    0.0000000000    0.0002787100
   0.0001021300   -0.0000000000    0.0002763300
  -0.0000865800    0.0000000100   -0.0008785800
  -0.0001099800   -0.0000000000   -0.0008651700
   0.0001817900   -0.0000000100    0.0002102100
   0.0001764100    0.0000000100    0.0002077600
  -0.0049243700    0.0000000100    0.1003802900
  -0.0048145700    0.0000000100   -0.0110646000
   0.0006785600   -0.0000000300   -0.0110673300
  -0.0000955000   -0.0000000300   -0.0111817000
   0.0005772800    0.0000000100   -0.0066174400
  -0.0003536700    0.0000000000   -0.0103387700
  -0.0000774600    0.0000000000   -0.0103517100
   0.0002623000    0.0000000100   -0.0099725400
  -0.0059912900   -0.0000000200    0.1268766500
  -0.0047834500   -0.0000000200    0.0109298300
   0.0006859400    0.0000000200    0.0109323200
  -0.0001009200    0.0000000200    0.0108149100
   0.0005893500    0.0000000100    0.0152895100
  -0.0003751600    0.0000000100    0.0116422900
  -0.0000726600   -0.0000000300    0.0116551900
   0.0002661400   -0.0000000400    0.0120312200

9    
  0.0060304563875062  -0.0000000000006378   0.0079770668643547
  -0.0079329400   -0.0051607900    0.0026305700
   0.0121682900   -0.0149554500    0.0149526400
  -0.0079329300    0.0051607900    0.0026304800
   0.0121682500    0.0149555000    0.0149526400
   0.0119312200    0.0145685400    0.0146041400
  -0.0078775500    0.0052265500    0.0026769000
   0.0119312800   -0.0145685600    0.0146041400
  -0.0078776100   -0.0052265400    0.0026768200
  -0.1752652900    0.0000000400   -0.1057532300
   0.0804495100    0.0000000200   -0.0207548100
  -0.0172217400   -0.0000000200   -0.0207520200
   0.0165191400   -0.0000000800   -0.0060389400
  -0.0032595200    0.0000001000    0.0155103800
   0.0022550800   -0.0000000600    0.0055681800
  -0.0005310700    0.0000000500    0.0055680200
   0.0006205900   -0.0000000600    0.0055539700
  -0.0013646800    0.0000000400    0.0010253500
   0.0051803000    0.0000000000    0.0079040100
  -0.0000424800   -0.0000000200    0.0012740300
   0.0003638200   -0.0000000000    0.0002929700
   0.0048439400    0.0000000200    0.0075043800
  -0.0013545400   -0.0000000300    0.0010331200
   0.0003595100   -0.0000000200    0.0002990700
  -0.0000549100    0.0000000300    0.0012747000
   0.0018767200   -0.0032515400    0.0044263800
  -0.0007433300   -0.0002053500    0.0007910700
   0.0018766800    0.0032515400    0.0044263900
  -0.0007433100    0.0002053500    0.0007910700
   0.0018386700    0.0031187900    0.0043051200
  -0.0007934200    0.0002052500    0.0007797100
   0.0018386200   -0.0031187900    0.0043051100
  -0.0007933600   -0.0002052600    0.0007797000
   0.0039119300    0.0045626000   -0.0127480200
   0.0126143200   -0.0133036200   -0.0037231100
   0.0039119300   -0.0045626200   -0.0127479500
   0.0126143000    0.0133036100   -0.0037231100
   0.0000568600   -0.0000456400   -0.0128276100
   0.0005061800   -0.0003993600   -0.0121403900
   0.0000568600    0.0000456500   -0.0128275800
   0.0005061900    0.0003993700   -0.0121404600
   0.0005037800    0.0003853900    0.0098485200
   0.0000784900    0.0000442100    0.0091380900
   0.0005037700   -0.0003853800    0.0098484600
   0.0000785000   -0.0000442200    0.0091380600
   0.0123319800    0.0129656300    0.0182085600
   0.0037799800   -0.0044503500    0.0093229500
   0.0123319800   -0.0129656500    0.0182085300
   0.0037799900    0.0044503400    0.0093230000

17   
  0.0051641219138022   0.0051641219124437   0.0068310826179169
   0.0023236100    0.0113635900    0.0033660400
  -0.0014126100    0.0001173700    0.0003456700
   0.0022092100    0.0119114400    0.0032235100
  -0.0014280000    0.0001226900    0.0003460600
  -0.0001941900   -0.0000554500   -0.0006424500
   0.0003548500    0.0001904500    0.0002835900
  -0.0001985000   -0.0000464500   -0.0006341200
   0.0003572700    0.0001826800    0.0002910300
  -0.0022173600    0.0015881000    0.0016911200
   0.0052090900    0.0015985500    0.0056282800
   0.0006847600   -0.0006624200    0.0005345800
  -0.0004198600   -0.0006779700    0.0007988100
   0.0054739100    0.0015717100    0.0059760600
  -0.0022151800    0.0015831700    0.0016625000
  -0.0004207700   -0.0006479900    0.0008128600
   0.0006895600   -0.0006638400    0.0005461700
  -0.0185490300   -0.0634129700   -0.0390316800
   0.0000486200   -0.0000401000   -0.0001362800
  -0.0004317900    0.0084335100   -0.0018406800
  -0.0002620100    0.0000886000   -0.0003660200
  -0.0006835500   -0.0000356000   -0.0005277700
  -0.0000053800    0.0003556200   -0.0004442900
   0.0004207400    0.0004922400    0.0017303700
   0.0000225900    0.0002776500    0.0002725200
   0.0005499600   -0.0005725000    0.0003286300
   0.0023215100    0.0034745500    0.0003299900
   0.0023524800    0.0035058000    0.0003309800
   0.0005881200   -0.0006138900    0.0003326400
   0.0000484600    0.0002943100    0.0002860500
   0.0004574600    0.0002012700    0.0002841000
   0.0004556300    0.0002032400    0.0002845200
   0.0000506600    0.0002955900    0.0002826000
   0.0001219800    0.0086746700   -0.0066794200
   0.0008473200    0.0001082800   -0.0109000800
   0.0001080600    0.0001296600   -0.0110132800
   0.0008588700    0.0000946300   -0.0111987800
  -0.0003107600   -0.0010877700   -0.0103584500
   0.0002938600   -0.0000670200   -0.0108314000
  -0.0003094000    0.0014124000   -0.0098156200
   0.0002924000    0.0004588400   -0.0103880900
   0.0001218000    0.0001943000    0.0109337400
   0.0008532700    0.0000969200    0.0108009200
   0.0001073000    0.0087462800    0.0153674100
   0.0008648600    0.0001105600    0.0111025600
  -0.0003057500    0.0014096900    0.0121993200
   0.0002907900    0.0004533400    0.0116182900
  -0.0003042500   -0.0010897000    0.0116448100
   0.0002893900   -0.0000680300    0.0111726800

33   
  0.0060304563875062  -0.0000000000006378   0.0079770668643547
  -0.0060156700   -0.0000000100    0.1160063600
  -0.0047850800    0.0000000200    0.0000612100
   0.0007241900    0.0000000600    0.0000520200
  -0.0000473000   -0.0000000400   -0.0000647500
   0.0006252000    0.0000000100    0.0043457700
  -0.0003281800   -0.0000000200    0.0007645400
  -0.0000272800   -0.0000000100    0.0007649600
   0.0003049100   -0.0000000000    0.0011502400
   0.0021670600    0.0028349600   -0.0004804800
   0.0139188200   -0.0145027100    0.0060121800
   0.0021669500   -0.0028349300   -0.0004804300
   0.0139188900    0.0145027400    0.0060123600
  -0.0001695500   -0.0002849700   -0.0016671400
   0.0007472500   -0.0006371800   -0.0013419800
  -0.0001695700    0.0002849300   -0.0016672800
   0.0007472200    0.0006371300   -0.0013419800
   0.0001211900    0.0033607500    0.0024861300
   0.0010031300    0.0002328500   -0.0000637400
   0.0001212000   -0.0033607400    0.0024861400
   0.0010031200   -0.0002328400   -0.0000637400
  -0.0003542600   -0.0004340100    0.0010642500
   0.0003427700   -0.0003453700    0.0004500500
  -0.0003542500    0.0004340100    0.0010642900
   0.0003427600    0.0003453900    0.0004500700
   0.0086462700   -0.0000000100    0.0063367500
   0.0018665200    0.0000000100   -0.0013103500
   0.0003552900    0.0000000100   -0.0000585100
  -0.0001062100   -0.0000000100   -0.0000764000
  -0.0002389500   -0.0000000100   -0.0000374200
   0.0006301900   -0.0000000000    0.0021746200
  -0.0001117200    0.0000000100    0.0002172800
   0.0005779600    0.0000000000    0.0006770600
  -0.0411173800   -0.0000000000   -0.1727348400
   0.0010135500    0.0000000100   -0.0113398100
  -0.0003413500   -0.0000000100   -0.0113392000
   0.0013337900   -0.0000000100   -0.0113139500
  -0.0012824400    0.0000000100   -0.0098015900
   0.0004572400    0.0000000200   -0.0110043900
   0.0002864200    0.0000000000   -0.0110032600
   0.0000365700   -0.0000000100   -0.0107791200
  -0.0000167400    0.0000000100    0.0134188100
   0.0007400300   -0.0000000100    0.0113990700
   0.0004061400   -0.0000000000    0.0113969100
   0.0005046100   -0.0000000000    0.0110902900
  -0.0009555200   -0.0000000100    0.0238622200
   0.0001153300    0.0000000000    0.0111862200
  -0.0003393300   -0.0000000200    0.0111837200
   0.0015362100   -0.0000000200    0.0118568300

33   
 -0.0060304563875062   0.0000000000006378  -0.0079770668643547
   0.0048186900   -0.0000000200   -0.1115514200
   0.0047232500    0.0000000400   -0.0000422700
  -0.0007290900    0.0000000400   -0.0000512200
   0.0000601600   -0.0000000500    0.0000638100
  -0.0006281300   -0.0000000600   -0.0045648000
   0.0003114800   -0.0000000100   -0.0007769400
   0.0000340300    0.0000000100   -0.0007765500
  -0.0003127000    0.0000000200   -0.0011467000
  -0.0023043400   -0.0029587100    0.0005287500
  -0.0142474600    0.0149885000   -0.0060194000
  -0.0023043900    0.0029587700    0.0005288100
  -0.0142474000   -0.0149884900   -0.0060192900
   0.0001820500    0.0002919900    0.0016719400
  -0.0007488700    0.0006334900    0.0013361300
   0.0001819300   -0.0002918900    0.0016717600
  -0.0007489400   -0.0006335100    0.0013360700
  -0.0001479700   -0.0034102800   -0.0025212500
  -0.0009973200   -0.0002308900    0.0000690100
  -0.0001479500    0.0034103000   -0.0025212300
  -0.0009973400    0.0002309000    0.0000690100
   0.0003628900    0.0004133900   -0.0010599100
  -0.0003392400    0.0003411700   -0.0004488300
   0.0003629100   -0.0004134000   -0.0010598700
  -0.0003392400   -0.0003411800   -0.0004488300
  -0.0084980300   -0.0000000100   -0.0062175800
  -0.0017346200    0.0000000000    0.0012284900
  -0.0003595200    0.0000000100    0.0000622100
   0.0001064600   -0.0000000100    0.0000682900
   0.0002206100   -0.0000000100    0.0000451200
  -0.0006048900   -0.0000000000   -0.0021558600
   0.0001096700    0.0000000000   -0.0002193800
  -0.0005737400   -0.0000000100   -0.0006841500
   0.0429786500   -0.0000000000    0.1464396100
  -0.0010084900    0.0000000100   -0.0106593500
   0.0003314100   -0.0000000300   -0.0106587500
  -0.0013572700   -0.0000000300   -0.0106920400
   0.0012751400   -0.0000000000   -0.0121926400
  -0.0004493400   -0.0000000000   -0.0109923000
  -0.0002775100   -0.0000000000   -0.0109912800
  -0.0000357800   -0.0000000000   -0.0112220200
   0.0000224700   -0.0000000000    0.0085383100
  -0.0007203500   -0.0000000100    0.0106029500
  -0.0003981200    0.0000000200    0.0106007600
  -0.0005038700    0.0000000100    0.0109165100
   0.0010589600   -0.0000000000   -0.0018582100
  -0.0001392000    0.0000000100    0.0108161600
   0.0003329600   -0.0000000300    0.0108137000
  -0.0015726000   -0.0000000200    0.0101446600
