phonopy:
  version: 2.13.1
  frequency_unit_conversion_factor: 15.633302
  symmetry_tolerance: 1.00000e-05
  configuration:
    cell_filename: "POSCAR-unitcell"
    create_displacements: ".true."
    dim: "2 2 2"

physical_unit:
  atomic_mass: "AMU"
  length: "angstrom"
  force_constants: "eV/angstrom^2"

space_group:
  type: "P4/mmm"
  number: 123
  Hall_symbol: "-P 4 2"

supercell_matrix:
- [   2,   0,   0 ]
- [   0,   2,   0 ]
- [   0,   0,   2 ]

primitive_cell:
  lattice:
  - [     2.948954562376394,    -0.000000000261913,     0.000000000590130 ] # a
  - [    -0.000000000271593,     2.948954562558402,     0.000000000087648 ] # b
  - [     0.000000000917466,    -0.000000000049984,     3.900866902298958 ] # c
  points:
  - symbol: Be # 1
    coordinates: [  0.000000000215041,  0.999999999661880,  0.500000007704110 ]
    mass: 9.012182
  - symbol: Ba # 2
    coordinates: [  0.499999999974599,  0.499999999973997,  0.999999998515991 ]
    mass: 137.327000
  - symbol: H  # 3
    coordinates: [  0.999999999856731,  0.499999999788261,  0.499999999901018 ]
    mass: 1.007940
  - symbol: H  # 4
    coordinates: [  0.500000000069784,  0.000000000237712,  0.499999999992474 ]
    mass: 1.007940
  - symbol: H  # 5
    coordinates: [  0.000000000122629,  0.000000000205432,  0.174329587646063 ]
    mass: 1.007940
  - symbol: H  # 6
    coordinates: [  0.999999999761216,  0.000000000132718,  0.825670406240344 ]
    mass: 1.007940
  reciprocal_lattice: # without 2pi
  - [     0.339103224158923,     0.000000000031231,    -0.000000000079756 ] # a*
  - [     0.000000000030118,     0.339103224137993,     0.000000000004345 ] # b*
  - [    -0.000000000051300,    -0.000000000007619,     0.256353273527650 ] # c*

unit_cell:
  lattice:
  - [     2.948954562376394,    -0.000000000261913,     0.000000000590130 ] # a
  - [    -0.000000000271593,     2.948954562558402,     0.000000000087648 ] # b
  - [     0.000000000917466,    -0.000000000049984,     3.900866902298958 ] # c
  points:
  - symbol: Be # 1
    coordinates: [  0.000000000215041, -0.000000000338120,  0.500000007704110 ]
    mass: 9.012182
    reduced_to: 1
  - symbol: Ba # 2
    coordinates: [  0.499999999974599,  0.499999999973997, -0.000000001484009 ]
    mass: 137.327000
    reduced_to: 2
  - symbol: H  # 3
    coordinates: [ -0.000000000143269,  0.499999999788261,  0.499999999901018 ]
    mass: 1.007940
    reduced_to: 3
  - symbol: H  # 4
    coordinates: [  0.500000000069784,  0.000000000237712,  0.499999999992474 ]
    mass: 1.007940
    reduced_to: 4
  - symbol: H  # 5
    coordinates: [  0.000000000122629,  0.000000000205432,  0.174329587646063 ]
    mass: 1.007940
    reduced_to: 5
  - symbol: H  # 6
    coordinates: [ -0.000000000238784,  0.000000000132718,  0.825670406240344 ]
    mass: 1.007940
    reduced_to: 6

supercell:
  lattice:
  - [     5.897909124752788,    -0.000000000523825,     0.000000001180261 ] # a
  - [    -0.000000000543186,     5.897909125116804,     0.000000000175296 ] # b
  - [     0.000000001834933,    -0.000000000099968,     7.801733804597917 ] # c
  points:
  - symbol: Be # 1
    coordinates: [  0.000000000107521,  0.999999999830940,  0.250000003852055 ]
    mass: 9.012182
    reduced_to: 1
  - symbol: Be # 2
    coordinates: [  0.500000000107521,  0.999999999830940,  0.250000003852055 ]
    mass: 9.012182
    reduced_to: 1
  - symbol: Be # 3
    coordinates: [  0.000000000107521,  0.499999999830940,  0.250000003852055 ]
    mass: 9.012182
    reduced_to: 1
  - symbol: Be # 4
    coordinates: [  0.500000000107521,  0.499999999830940,  0.250000003852055 ]
    mass: 9.012182
    reduced_to: 1
  - symbol: Be # 5
    coordinates: [  0.000000000107521,  0.999999999830940,  0.750000003852055 ]
    mass: 9.012182
    reduced_to: 1
  - symbol: Be # 6
    coordinates: [  0.500000000107521,  0.999999999830940,  0.750000003852055 ]
    mass: 9.012182
    reduced_to: 1
  - symbol: Be # 7
    coordinates: [  0.000000000107521,  0.499999999830940,  0.750000003852055 ]
    mass: 9.012182
    reduced_to: 1
  - symbol: Be # 8
    coordinates: [  0.500000000107521,  0.499999999830940,  0.750000003852055 ]
    mass: 9.012182
    reduced_to: 1
  - symbol: Ba # 9
    coordinates: [  0.249999999987300,  0.249999999986999,  0.999999999257995 ]
    mass: 137.327000
    reduced_to: 9
  - symbol: Ba # 10
    coordinates: [  0.749999999987300,  0.249999999986999,  0.999999999257995 ]
    mass: 137.327000
    reduced_to: 9
  - symbol: Ba # 11
    coordinates: [  0.249999999987300,  0.749999999986999,  0.999999999257995 ]
    mass: 137.327000
    reduced_to: 9
  - symbol: Ba # 12
    coordinates: [  0.749999999987300,  0.749999999986999,  0.999999999257995 ]
    mass: 137.327000
    reduced_to: 9
  - symbol: Ba # 13
    coordinates: [  0.249999999987300,  0.249999999986999,  0.499999999257995 ]
    mass: 137.327000
    reduced_to: 9
  - symbol: Ba # 14
    coordinates: [  0.749999999987300,  0.249999999986999,  0.499999999257995 ]
    mass: 137.327000
    reduced_to: 9
  - symbol: Ba # 15
    coordinates: [  0.249999999987300,  0.749999999986999,  0.499999999257995 ]
    mass: 137.327000
    reduced_to: 9
  - symbol: Ba # 16
    coordinates: [  0.749999999987300,  0.749999999986999,  0.499999999257995 ]
    mass: 137.327000
    reduced_to: 9
  - symbol: H  # 17
    coordinates: [  0.999999999928365,  0.249999999894130,  0.249999999950509 ]
    mass: 1.007940
    reduced_to: 17
  - symbol: H  # 18
    coordinates: [  0.499999999928365,  0.249999999894130,  0.249999999950509 ]
    mass: 1.007940
    reduced_to: 17
  - symbol: H  # 19
    coordinates: [  0.999999999928365,  0.749999999894130,  0.249999999950509 ]
    mass: 1.007940
    reduced_to: 17
  - symbol: H  # 20
    coordinates: [  0.499999999928365,  0.749999999894130,  0.249999999950509 ]
    mass: 1.007940
    reduced_to: 17
  - symbol: H  # 21
    coordinates: [  0.999999999928365,  0.249999999894130,  0.749999999950509 ]
    mass: 1.007940
    reduced_to: 17
  - symbol: H  # 22
    coordinates: [  0.499999999928365,  0.249999999894130,  0.749999999950509 ]
    mass: 1.007940
    reduced_to: 17
  - symbol: H  # 23
    coordinates: [  0.999999999928365,  0.749999999894130,  0.749999999950509 ]
    mass: 1.007940
    reduced_to: 17
  - symbol: H  # 24
    coordinates: [  0.499999999928365,  0.749999999894130,  0.749999999950509 ]
    mass: 1.007940
    reduced_to: 17
  - symbol: H  # 25
    coordinates: [  0.250000000034892,  0.000000000118856,  0.249999999996237 ]
    mass: 1.007940
    reduced_to: 25
  - symbol: H  # 26
    coordinates: [  0.750000000034892,  0.000000000118856,  0.249999999996237 ]
    mass: 1.007940
    reduced_to: 25
  - symbol: H  # 27
    coordinates: [  0.250000000034892,  0.500000000118856,  0.249999999996237 ]
    mass: 1.007940
    reduced_to: 25
  - symbol: H  # 28
    coordinates: [  0.750000000034892,  0.500000000118856,  0.249999999996237 ]
    mass: 1.007940
    reduced_to: 25
  - symbol: H  # 29
    coordinates: [  0.250000000034892,  0.000000000118856,  0.749999999996237 ]
    mass: 1.007940
    reduced_to: 25
  - symbol: H  # 30
    coordinates: [  0.750000000034892,  0.000000000118856,  0.749999999996237 ]
    mass: 1.007940
    reduced_to: 25
  - symbol: H  # 31
    coordinates: [  0.250000000034892,  0.500000000118856,  0.749999999996237 ]
    mass: 1.007940
    reduced_to: 25
  - symbol: H  # 32
    coordinates: [  0.750000000034892,  0.500000000118856,  0.749999999996237 ]
    mass: 1.007940
    reduced_to: 25
  - symbol: H  # 33
    coordinates: [  0.000000000061315,  0.000000000102716,  0.087164793823032 ]
    mass: 1.007940
    reduced_to: 33
  - symbol: H  # 34
    coordinates: [  0.500000000061315,  0.000000000102716,  0.087164793823032 ]
    mass: 1.007940
    reduced_to: 33
  - symbol: H  # 35
    coordinates: [  0.000000000061315,  0.500000000102716,  0.087164793823032 ]
    mass: 1.007940
    reduced_to: 33
  - symbol: H  # 36
    coordinates: [  0.500000000061315,  0.500000000102716,  0.087164793823032 ]
    mass: 1.007940
    reduced_to: 33
  - symbol: H  # 37
    coordinates: [  0.000000000061315,  0.000000000102716,  0.587164793823032 ]
    mass: 1.007940
    reduced_to: 33
  - symbol: H  # 38
    coordinates: [  0.500000000061315,  0.000000000102716,  0.587164793823032 ]
    mass: 1.007940
    reduced_to: 33
  - symbol: H  # 39
    coordinates: [  0.000000000061315,  0.500000000102716,  0.587164793823032 ]
    mass: 1.007940
    reduced_to: 33
  - symbol: H  # 40
    coordinates: [  0.500000000061315,  0.500000000102716,  0.587164793823032 ]
    mass: 1.007940
    reduced_to: 33
  - symbol: H  # 41
    coordinates: [  0.999999999880608,  0.000000000066359,  0.412835203120172 ]
    mass: 1.007940
    reduced_to: 41
  - symbol: H  # 42
    coordinates: [  0.499999999880608,  0.000000000066359,  0.412835203120172 ]
    mass: 1.007940
    reduced_to: 41
  - symbol: H  # 43
    coordinates: [  0.999999999880608,  0.500000000066359,  0.412835203120172 ]
    mass: 1.007940
    reduced_to: 41
  - symbol: H  # 44
    coordinates: [  0.499999999880608,  0.500000000066359,  0.412835203120172 ]
    mass: 1.007940
    reduced_to: 41
  - symbol: H  # 45
    coordinates: [  0.999999999880608,  0.000000000066359,  0.912835203120172 ]
    mass: 1.007940
    reduced_to: 41
  - symbol: H  # 46
    coordinates: [  0.499999999880608,  0.000000000066359,  0.912835203120172 ]
    mass: 1.007940
    reduced_to: 41
  - symbol: H  # 47
    coordinates: [  0.999999999880608,  0.500000000066359,  0.912835203120172 ]
    mass: 1.007940
    reduced_to: 41
  - symbol: H  # 48
    coordinates: [  0.499999999880608,  0.500000000066359,  0.912835203120172 ]
    mass: 1.007940
    reduced_to: 41

displacements:
- atom:    1
  displacement:
    [   0.0060304563875062, -0.0000000000006378,  0.0079770668643547 ]
- atom:    9
  displacement:
    [   0.0060304563875062, -0.0000000000006378,  0.0079770668643547 ]
- atom:   17
  displacement:
    [   0.0051641219138022,  0.0051641219124437,  0.0068310826179169 ]
- atom:   33
  displacement:
    [   0.0060304563875062, -0.0000000000006378,  0.0079770668643547 ]
- atom:   33
  displacement:
    [  -0.0060304563875062,  0.0000000000006378, -0.0079770668643547 ]
